FoamFile
{
    version     2.0;
    format      ascii;
    class       polyBoundaryMesh;
    location    "constant/polyMesh";
    object      boundary;
}

4         
(
    invwall
    {
        type Unspecified;
        nFaces 31126;
        startFace 30800;
    }
    supinlet
    {
        type Unspecified;
        nFaces 78;
        startFace 61926;
    }
    supoutlet
    {
        type Unspecified;
        nFaces 59;
        startFace 62004;
    }
    viswall
    {
        type Unspecified;
        nFaces 515;
        startFace 62063;
    }
)
