FoamFile
{
    version     2.0;
    format      ascii;
    class       polyBoundaryMesh;
    location    "constant/polyMesh";
    object      boundary;
}

1         
(
    invwall
    {
        type Unspecified;
        nFaces 5046;
        startFace 70644;
    }
)
